# LAMMPS data file written by OVITO Basic 3.11.3

64 atoms
1 atom types

0.0 10.937456 xlo xhi
0.0 10.937456 ylo yhi
0.0 10.937456 zlo zhi

Masses

1 28.0855  # Si

Atoms  # atomic

1 1 6.21261 3.63865 2.87964
2 1 6.51728 6.31381 1.63226
3 1 3.12517 5.0266 3.93283
4 1 2.68866 0.58414 3.83875
5 1 5.62383 5.53003 10.24814
6 1 7.16469 4.26319 0.14834
7 1 2.97663 1.84074 8.78801
8 1 1.64498 2.89218 4.71811
9 1 2.41503 8.44115 10.6829
10 1 10.73635 1.845 10.37192
11 1 7.73886 8.51616 8.54092
12 1 9.98819 4.16911 4.84917
13 1 8.02734 1.74749 1.27147
14 1 10.77567 7.19944 2.77411
15 1 1.15624 5.95203 9.6467
16 1 4.75033 2.937 10.04978
17 1 7.3471 1.10977 9.82723
18 1 4.4204 5.04043 8.18925
19 1 4.11931 8.27443 6.40321
20 1 3.90951 7.42322 8.79864
21 1 3.65141 10.85214 6.69761
22 1 2.54161 7.0025 2.06734
23 1 8.76345 8.04391 2.42296
24 1 8.52305 10.90515 8.10975
25 1 6.20351 2.48478 8.19635
26 1 1.14842 9.63256 7.21436
27 1 2.56906 3.86983 9.29957
28 1 8.83594 2.25592 8.37076
29 1 6.24187 6.58163 7.6961
30 1 2.60151 5.15554 0.57798
31 1 0.92743 4.63963 3.03439
32 1 6.19972 0.74116 6.84765
33 1 4.93632 1.00963 4.74266
34 1 7.79833 4.59372 7.75059
35 1 6.90378 9.44629 5.63159
36 1 2.87329 8.80191 4.39189
37 1 0.06552 7.56864 0.27832
38 1 1.27938 7.42452 5.46871
39 1 1.22474 4.1086 7.03282
40 1 9.56948 6.92176 8.76841
41 1 8.78166 0.63037 5.3855
42 1 5.52787 1.78648 1.53418
43 1 8.5822 9.17914 10.69879
44 1 9.97508 7.03989 6.30296
45 1 10.41011 0.02609 1.40547
46 1 7.25882 1.67801 3.80791
47 1 4.07396 9.94331 1.03412
48 1 10.44961 4.07896 9.13272
49 1 1.55739 1.37414 1.55439
50 1 5.38103 0.18825 10.93596
51 1 5.91508 10.53541 2.79441
52 1 5.6508 7.69454 10.56055
53 1 8.07942 10.47902 2.52197
54 1 4.66185 6.90541 3.44693
55 1 10.8167 1.85971 3.87902
56 1 2.05521 10.27601 9.46383
57 1 5.69715 8.46223 1.92249
58 1 3.3732 2.81974 2.07802
59 1 3.84047 2.73582 6.56789
60 1 5.45895 9.13022 8.44683
61 1 10.12135 2.71922 1.54894
62 1 10.57211 10.34716 9.65691
63 1 5.62343 7.04134 5.40597
64 1 8.02085 5.90318 5.33196
